6.738069000000000308e+00 8.108591000000000548e+00 8.974138999999999200e+00 6.893945000000000434e+00 8.937105999999999995e+00 9.785783999999999594e+00 5.970659000000000383e+00 8.526032999999999973e+00 8.399003000000000441e+00 1.806491000000000069e+00 1.837595999999999952e-01 2.223307000000000144e+00 1.626106000000000051e+00 7.406089000000000144e-01 3.118489999999999984e+00 1.484418999999999933e+00 5.078285000000000160e-01 1.415791999999999939e+00 1.021909999999999918e+01 6.493121999999999616e+00 1.876613000000000087e+00 1.034933999999999976e+01 6.397962999999999845e+00 2.870369999999999866e+00 9.901560999999999169e+00 7.310414999999999885e+00 1.539479999999999960e+00 3.822169999999999845e+00 6.372793999999999848e+00 1.764839000000000047e+00 4.210088999999999970e+00 7.235927000000000220e+00 1.429316000000000031e+00 2.825892000000000071e+00 6.334552000000000405e+00 1.712633000000000072e+00 6.507045999999999664e-01 8.214454999999999174e+00 8.091150000000000730e+00 8.313766999999999685e-01 7.380702999999999570e+00 7.489512999999999643e+00 -5.832575000000000259e-02 8.245837999999999113e+00 8.611427000000000831e+00 4.514072999999999780e+00 3.792184000000000110e-01 8.040249000000000423e-01 5.130180000000000184e+00 2.295688999999999924e-01 1.655721999999999916e+00 3.609818000000000193e+00 1.417416999999999982e-01 1.120252999999999943e+00 2.592744999999999855e+00 7.702372000000000440e+00 1.018328999999999951e+01 2.061307999999999918e+00 7.655213999999999963e+00 9.188838000000000505e+00 2.724181000000000186e+00 8.621933000000000291e+00 1.033273999999999937e+01 1.149906000000000006e+01 3.851459000000000188e+00 9.478877000000000663e+00 1.161124000000000045e+01 2.719317000000000206e+00 9.492869999999999919e+00 1.092963999999999913e+01 4.130957000000000434e+00 1.039447999999999972e+01 8.550312999999999164e+00 1.281373000000000095e+00 1.180794000000000032e+01 9.512997000000000369e+00 1.301338000000000106e+00 1.156617999999999924e+01 8.168632999999999811e+00 2.076255999999999879e+00 1.153055999999999948e+01 1.133901000000000003e+01 1.026160999999999923e+01 1.174554000000000009e+01 1.228306000000000076e+01 9.876635999999999527e+00 1.229238999999999926e+01 1.148368999999999929e+01 1.132601999999999975e+01 1.135607000000000077e+01 7.218229000000000006e+00 4.848906000000000382e+00 7.952624000000000137e+00 6.720392000000000365e+00 5.460029999999999717e+00 8.526586999999999250e+00 6.890182000000000251e+00 4.898997999999999742e+00 7.119945999999999664e+00 7.219215000000000160e+00 8.011749000000000009e+00 5.213451000000000057e+00 7.506649000000000349e+00 8.669458000000000553e+00 4.333461999999999925e+00 7.836349000000000231e+00 8.235785999999999163e+00 5.896933999999999898e+00 1.044834999999999958e+01 1.175356999999999985e+01 5.833473999999999826e+00 1.130297000000000018e+01 1.202355000000000018e+01 6.460873999999999562e+00 9.871686000000000405e+00 1.257506000000000057e+01 5.721726999999999563e+00 3.911223000000000116e+00 1.074546999999999919e+01 8.964192000000000604e+00 4.524409999999999599e+00 1.068612000000000073e+01 8.204131999999999536e+00 3.858309000000000211e+00 1.164592999999999989e+01 9.318908999999999665e+00 4.642043000000000141e+00 6.103431999999999746e+00 8.926014000000000337e+00 4.204239000000000281e+00 6.873690999999999995e+00 9.159993999999999303e+00 4.205453000000000330e+00 5.330735999999999919e+00 8.945785000000000764e+00 4.373914000000000080e+00 6.855575999999999892e-01 1.021162999999999954e+01 4.143184999999999896e+00 5.230004999999999793e-01 1.128173999999999921e+01 4.962710999999999650e+00 1.344753000000000087e+00 9.813613999999999393e+00 1.159394999999999953e+01 1.424171999999999993e+00 8.612296000000000618e+00 1.067591000000000001e+01 1.191105999999999998e+00 8.368477999999999639e+00 1.213128000000000029e+01 8.063350999999999713e-01 8.171238000000000667e+00 6.514103000000000421e+00 6.677743000000000428e+00 1.115137999999999963e+01 6.434619999999999784e+00 5.567495000000000083e+00 1.133724999999999916e+01 6.259663999999999895e+00 6.942789000000000321e+00 1.026371999999999929e+01 1.687750000000000083e+00 4.440699999999999648e+00 8.786412999999999585e+00 1.485903999999999892e+00 5.136376000000000275e+00 8.128289000000000541e+00 9.137064000000000297e-01 4.412307000000000201e+00 9.139882999999999313e+00 1.105850000000000044e+01 8.503316999999999126e+00 9.880907999999999802e+00 1.037494000000000050e+01 8.673149999999999693e+00 9.153679999999999595e+00 1.119253999999999927e+01 9.326527999999999707e+00 1.029349999999999987e+01 9.932161000000000683e+00 4.796440999999999732e+00 1.185839999999999961e+01 9.756159000000000248e+00 5.764234000000000080e+00 1.178213000000000044e+01 1.027289000000000030e+01 4.648343999999999809e+00 1.274817000000000000e+01 6.056786999999999921e+00 4.175527999999999906e+00 5.750945999999999891e+00 5.865064000000000277e+00 4.588128000000000206e+00 4.889218999999999760e+00 5.344384999999999941e+00 3.670617000000000019e+00 5.682839999999999669e+00 9.695361999999999369e+00 5.544503999999999877e+00 7.641720000000000290e+00 1.035107999999999961e+01 4.744936000000000043e+00 8.099591999999999459e+00 8.859052000000000149e+00 5.468817999999999735e+00 7.968746000000000329e+00 8.334374999999999645e+00 1.581447000000000047e+00 5.633585000000000065e+00 8.643575999999999482e+00 2.211157000000000039e+00 4.956335000000000157e+00 7.489444999999999908e+00 1.379988999999999910e+00 5.581413000000000402e+00 1.135078000000000031e+00 1.708301999999999987e+00 4.379649999999999821e+00 1.796235999999999944e+00 2.360104000000000202e+00 4.470717999999999748e+00 1.192798000000000025e+00 1.434557000000000082e+00 5.260079000000000171e+00 2.625145999999999979e+00 3.384316999999999798e+00 1.148035999999999923e+01 3.639686000000000199e+00 3.296842999999999968e+00 1.200126999999999988e+01 2.462314000000000114e+00 4.264226999999999990e+00 1.145120000000000005e+01 8.636946000000000012e+00 2.222603999999999969e-01 2.032163000000000164e+00 8.676028999999999769e+00 4.000175999999999732e-01 1.066915000000000058e+00 9.215227999999999753e+00 -4.296239000000000030e-01 2.028890999999999778e+00 4.209711000000000425e+00 2.940535000000000121e+00 1.562338000000000005e+00 5.202449999999999797e+00 3.067365999999999815e+00 1.752655999999999992e+00 4.337058999999999997e+00 2.118040999999999840e+00 1.399910999999999905e+00 2.135518999999999945e+00 1.041136000000000017e+01 7.208408999999999622e+00 1.490920000000000023e+00 9.673142000000000351e+00 7.564932999999999907e+00 3.071578000000000142e+00 1.026037999999999961e+01 7.590155000000000207e+00 3.020157000000000203e+00 6.316161000000000136e+00 4.890375999999999834e+00 3.818903999999999854e+00 6.721003999999999756e+00 5.351861000000000423e+00 2.622767000000000071e+00 6.672035000000000160e+00 4.242564999999999920e+00 6.190362999999999616e+00 2.759853000000000112e+00 9.343387999999999138e+00 6.284216999999999942e+00 3.298602999999999952e+00 1.007188999999999979e+01 6.498376999999999626e+00 3.048923999999999968e+00 8.558101999999999876e+00 3.697543000000000024e+00 9.658046999999999827e+00 1.162827000000000055e+01 4.017454999999999998e+00 1.029176000000000002e+01 1.073568999999999996e+01 4.458254000000000161e+00 9.455659000000000702e+00 1.221183000000000085e+01 6.788854999999999862e+00 1.041874999999999929e+01 1.056326999999999927e+01 6.868147999999999698e+00 1.066413000000000011e+01 1.159174999999999933e+01 7.491818999999999562e+00 1.104442000000000057e+01 1.026218000000000075e+01 2.973090000000000011e+00 3.687816000000000205e+00 4.071790000000000020e+00 3.072373999999999938e+00 4.540188999999999808e+00 4.421676999999999857e+00 3.181957000000000146e+00 3.451737000000000055e+00 3.220131999999999994e+00 6.113925000000000054e+00 8.465762999999999414e-03 2.961720000000000130e+00 5.695739999999999803e+00 9.514519000000000448e-02 3.952466999999999953e+00 7.064854999999999663e+00 3.788350999999999802e-01 2.774195999999999884e+00 4.882520000000000415e+00 7.423309999999999853e+00 6.177787999999999613e+00 4.726587999999999568e+00 7.081284000000000134e+00 7.156627000000000294e+00 5.857554999999999623e+00 7.174182000000000059e+00 5.969778999999999947e+00 9.731462000000000501e+00 9.398303999999999547e+00 1.761665000000000036e+00 1.049234000000000044e+01 9.639233000000000828e+00 2.384263999999999939e+00 9.906067999999999429e+00 9.946419000000000565e+00 1.011787999999999910e+00 1.123925999999999981e+01 4.577065000000000161e+00 5.549663999999999930e+00 1.037344000000000044e+01 4.937406000000000184e+00 6.097845999999999655e+00 1.110089999999999932e+01 3.703015000000000168e+00 5.277041999999999788e+00 7.002431999999999768e+00 3.835986999999999814e+00 1.918854999999999977e+00 6.596362000000000059e+00 4.473302000000000334e+00 2.563508000000000120e+00 7.629730000000000345e+00 3.382903000000000215e+00 2.420183999999999891e+00 5.999835000000000029e+00 5.825040000000000440e+00 3.491460000000000008e+00 6.605898999999999965e+00 6.597317000000000320e+00 3.633506999999999820e+00 5.310355000000000381e+00 6.093200000000000394e+00 2.945543999999999940e+00 2.142926000000000109e+00 1.021916000000000047e+01 4.468047999999999575e+00 2.354982000000000131e+00 1.003209000000000017e+01 5.358296000000000170e+00 1.668479000000000045e+00 1.098351000000000077e+01 4.564892000000000394e+00 1.124849999999999994e+01 1.142051999999999978e+01 2.903290999999999844e+00 1.120368999999999993e+01 1.132585000000000086e+01 4.033129999999999882e+00 1.213087999999999944e+01 1.109126999999999974e+01 2.598377000000000159e+00 5.529316999999999815e+00 8.457746999999999460e+00 7.814385000000000359e-01 6.143995000000000317e+00 7.867034000000000304e+00 2.754615999999999731e-01 6.215247999999999884e+00 8.663978999999999431e+00 1.351167999999999925e+00 1.370387999999999940e+00 5.803688000000000180e+00 1.153917999999999999e+01 1.912509999999999932e+00 6.544896999999999743e+00 1.115409000000000006e+01 7.037575000000000358e-01 5.488199999999999967e+00 1.095367000000000068e+01 9.049474999999999270e+00 2.649687000000000126e+00 3.197604999999999809e+00 8.697959000000000884e+00 1.976515000000000022e+00 2.637097999999999942e+00 9.918082999999999316e+00 2.880574999999999886e+00 3.034733999999999821e+00 9.281499999999999417e+00 8.330092999999999748e+00 7.256986999999999632e+00 9.465611000000000885e+00 7.364944000000000379e+00 7.360145000000000159e+00 9.588798000000000599e+00 8.680103000000000790e+00 6.452796000000000198e+00 1.351269000000000053e+00 9.854065000000000296e+00 1.024353999999999987e+00 2.073599999999999888e+00 9.821230999999999156e+00 2.226017999999999886e-01 1.586813999999999947e+00 1.049826000000000015e+01 1.544656999999999947e+00 1.116389999999999993e+01 5.161341000000000401e-01 1.119749000000000017e+01 1.203360999999999947e+01 8.759567000000000325e-01 1.169297000000000075e+01 1.151881000000000022e+01 7.854115000000000402e-01 1.033670000000000044e+01 4.006822999999999912e-01 5.467276000000000025e+00 1.555712999999999901e+00 -3.818768000000000162e-01 6.078028999999999904e+00 1.481214000000000031e+00 7.788488000000000078e-01 5.422659000000000340e+00 7.541797000000000084e-01 8.652136999999999745e+00 1.545711999999999975e+00 8.196294999999999220e+00 7.935382999999999853e+00 1.922868000000000022e+00 8.866469000000000378e+00 8.379941000000000528e+00 1.727459000000000078e+00 7.225310999999999595e+00 8.292346000000000217e+00 1.115848000000000084e+01 8.456198000000000548e+00 8.404519000000000517e+00 1.225337000000000032e+01 8.422060000000000102e+00 8.880834999999999368e+00 1.096207000000000065e+01 7.862083000000000155e+00 1.019840000000000080e+00 6.095347000000000293e+00 6.659660999999999831e+00 1.783306999999999976e+00 6.155558000000000085e+00 5.875032000000000032e+00 4.743002000000000051e-01 5.280111999999999917e+00 6.512362999999999680e+00 3.992135999999999907e+00 1.994475999999999916e+00 6.081976000000000049e+00 3.378041000000000071e+00 2.607012000000000107e+00 5.290779999999999816e+00 3.541561000000000181e+00 2.061456000000000177e+00 6.787060000000000315e+00 1.183872999999999998e+01 3.058410999999999991e+00 2.390849999999999920e+00 1.256044999999999945e+01 3.922426999999999886e+00 2.378944999999999865e+00 1.191050000000000075e+01 2.729273000000000060e+00 3.335977000000000192e+00 1.454598999999999975e+00 8.046651999999999916e+00 3.535039999999999960e+00 1.864679999999999893e+00 9.045916999999999319e+00 3.586567000000000061e+00 1.130632000000000081e+00 7.963968000000000380e+00 2.513396000000000186e+00 1.123764000000000074e+01 7.736525000000000318e+00 4.554695999999999856e+00 1.220575999999999972e+01 7.906090999999999980e+00 4.161672000000000260e+00 1.141216999999999970e+01 7.261701000000000406e+00 5.342876000000000403e+00 8.965684000000000431e-01 5.486811000000000327e-01 6.959918000000000049e+00 1.552821999999999925e+00 1.190110000000000001e+00 7.561560000000000059e+00 1.167688000000000059e+00 -3.963463999999999876e-01 7.030941000000000329e+00 6.492826999999999904e-01 1.829806999999999961e+00 4.199909000000000003e-01 1.265859000000000012e-01 2.456223000000000045e+00 1.042675999999999936e+00 1.316030999999999951e+00 2.283310000000000173e+00 -2.121390999999999971e-01 5.896100999999999814e+00 3.866299000000000263e-01 5.504453999999999958e+00 5.158941999999999695e+00 1.267166999999999932e+00 5.779588000000000392e+00 5.635135000000000005e+00 -4.444105999999999890e-01 5.965264999999999596e+00 7.397888000000000019e+00 9.641102000000000061e+00 3.025427999999999784e+00 8.126070999999999600e+00 9.394968000000000430e+00 2.478318999999999939e+00 7.028177999999999592e+00 1.039334999999999987e+01 3.019849999999999923e+00 5.875022000000000411e+00 1.043941000000000052e+01 7.058023000000000380e+00 6.728417000000000314e+00 1.075625999999999927e+01 7.536233000000000182e+00 6.010708000000000162e+00 9.689970000000000638e+00 6.497981000000000229e+00 7.501688999999999830e+00 3.851938999999999780e+00 1.158619999999999983e+01 7.217787999999999649e+00 3.837849999999999984e+00 1.269593000000000060e+01 8.387928999999999746e+00 4.250096000000000096e+00 1.145207000000000086e+01 2.697910999999999948e+00 1.929213999999999984e+00 8.489565999999999946e+00 2.303814000000000028e+00 2.969278999999999780e+00 8.412478000000000122e+00 3.122021000000000157e+00 1.940830000000000055e+00 9.420403000000000304e+00 9.038486000000000686e+00 7.334609000000000378e+00 1.183200000000000074e+01 8.202078999999999454e+00 6.828960999999999615e+00 1.151920999999999928e+01 9.212037999999999727e+00 7.674773000000000067e+00 1.099305000000000021e+01
