12.136090 0.000000 0.000000 0.000000 12.136090 0.000000 0.000000 0.000000 12.136090
12.103206 0.000000 0.000000 0.000000 12.103206 0.000000 0.000000 0.000000 12.103206

