10.704282 3.195815 2.339469 9.941341 5.165951 6.819655 12.121798 10.616032 10.640378 9.342395 1.118847 6.574122 6.799542 3.172162 2.024545 11.751717 5.185734 4.451176 6.911427 0.126751 3.232932 5.945220 8.805837 5.123573 1.977840 6.953338 4.180641 6.868777 6.209639 10.563171 11.158188 11.463651 2.538490 3.678462 11.893271 9.359678 2.906641 5.200186 1.684565 1.700035 6.980268 0.136259 0.880429 3.388789 6.117224 0.653262 9.310664 4.155067 1.448137 9.614593 1.085883 11.807936 1.198454 8.109526 5.414153 11.079220 6.509734 3.808297 3.271945 4.896557 2.604147 10.988782 3.527575 8.635710 9.928054 1.376344 3.853056 9.603984 11.993118 5.860826 8.588685 1.335847 8.626443 3.291581 8.060667 5.138570 8.990328 8.272038 2.326520 5.475488 7.191452 11.396851 8.115004 7.296620 9.027492 6.677958 3.148475 9.725619 2.555343 10.777061 3.915148 8.633547 3.216772 9.271061 1.787782 4.089130 1.641364 3.219430 3.203593 8.764272 8.539546 7.051118 4.172954 3.405850 7.890050 9.003748 4.389793 0.424154 5.711236 3.460691 10.169616 6.999302 9.083293 10.339297 10.865596 8.264658 1.935959 11.981598 1.195578 10.917038 6.514176 4.359208 6.877033 6.644002 6.023856 1.393776 11.287940 10.729938 7.479824 4.624349 0.624130 4.673352 1.112211 6.900874 8.735687 4.270964 0.546795 11.935884 5.260727 5.302386 3.686472 4.898526 6.318333 6.912252 7.810626 11.480054 7.725951 1.392758 3.130140 10.588871 3.887427 3.257863 0.265373 7.153662 11.229947 11.828646 9.709830 9.578077 9.775549 2.030242 9.637889 8.979417 8.288987 4.181252 4.897323 7.354038 1.341921 10.103251 8.542277 9.538090 4.078058 4.264328 7.047627 10.512596 12.066249 5.590239 10.822259 3.083668 1.069056 7.209217 9.483187 6.762658 9.371394 2.541877 9.656950 6.092341 10.329711 11.084884 4.977687 0.663578 1.405430 1.492003 11.199413 3.614299 2.998374 10.775495 5.325378 6.316117 12.040187 11.571270 11.018164 9.464736 1.256494 5.583527 6.187871 2.381737 2.079813 0.353499 5.767849 4.118994 7.731589 0.514236 3.457974 5.255784 8.778599 4.564028 2.225244 6.419679 4.918641 5.963181 6.721814 10.491150 11.068018 11.002903 3.378916 3.739678 11.958910 10.459913 3.286604 5.736259 2.306002 1.050758 6.388730 11.800507 1.471156 2.804214 5.474127 11.875011 9.793250 4.468423 2.400165 9.517617 0.895936 0.596789 1.416935 7.735021 6.356533 11.294918 6.930145 3.136530 3.139731 4.042633 3.213276 11.656002 4.007361 8.210743 10.486362 0.585326 4.661063 9.313124 0.340326 5.183007 8.899547 2.358222 9.317714 3.945994 7.688407 5.239023 9.853829 7.865442 3.165590 5.952268 7.062607 10.412098 8.349851 6.961241 9.364319 5.988332 3.793587 9.321616 3.439764 11.381208 3.361188 9.719269 3.283525 8.928282 2.697118 4.432971 1.412109 2.639484 2.429653 8.511364 9.250727 7.688005 3.518335 4.237195 7.807029 9.553212 4.035300 1.071281 6.171374 4.524143 10.082567 7.165447 8.148080 10.423615 11.750294 8.475025 2.391129 0.520372 2.020220 10.745968 5.812333 3.725633 6.989644 5.995287 5.460035 1.833881 11.440221 11.598481 7.902614 5.047199 0.043168 5.421795 1.721308 7.600847 9.006552 5.187971 0.305891 12.005333 5.110708 6.115827 4.347126 5.564387 5.687150 6.985352 8.528860 11.878365 7.198002 2.440267 3.355877 10.960248 3.775992 3.964350 0.819338 6.903090 10.408623 11.130995 8.752507 9.812529 10.017048 1.353559 9.964235 9.515667 7.541586 4.206983 5.510442 6.756021 2.154937 10.214551 8.480183 9.788092 3.077143 3.492930 6.621133 10.815215 11.130028 5.867189 10.795035 3.377880 0.544504 8.098135 8.623101 6.389440 9.801753 2.162981 9.770935 5.203230 10.521602 11.131262 5.865867 0.167416 0.735491 2.010089 11.410414 2.587775 1.892165 9.405632 4.832260 6.053931 11.251582 10.255683 10.550823 10.203140 1.238133 7.191499 6.870060 3.312159 1.084953 0.056272 4.485262 4.798096 7.052817 11.811794 2.429488 6.662175 8.898397 4.753550 1.298982 7.623252 4.512761 6.931067 5.988920 11.456281 10.373090 11.105754 2.036761 3.047900 10.907012 9.408951 2.520937 5.876716 1.099028 1.267177 7.722314 0.316849 1.597684 4.206504 6.362799 0.973639 9.810688 3.382151 0.928016 10.137194 0.440849 11.877730 1.414836 8.982708 5.573419 10.394704 5.997060 4.329295 2.413196 4.663682 2.275588 11.382601 2.737558 9.479569 9.596301 1.197050 3.868050 10.626403 11.960397 6.596865 9.248168 1.508987 8.845956 2.324246 7.727156 4.390798 8.802404 8.721424 1.626591 6.198815 7.713795 11.818021 8.983602 7.041014 8.464095 6.150702 2.732279 10.052118 3.045253 9.902793 3.181529 8.083760 3.564223 10.057420 2.117915 3.587598 2.140103 3.903323 2.676195 7.969861 8.453125 6.416510 3.609642 2.627735 7.778252 8.296818 4.969682 0.745366 5.203322 3.249067 9.098949 6.263875 9.250994 9.692585 10.583104 7.559416 2.480099 11.250818 1.891651 11.158655 7.106682 4.172113 7.493945 6.551436 7.165558 1.291032 10.998752 10.051732 8.294602 5.226833 0.569004 3.826269 0.402126 7.485558 8.240320 4.094434 1.412524 0.159103 4.784642 4.527013 4.053353 5.090359 7.349880 7.374166 7.565625 12.072021 8.540238 0.985155 3.892479 10.697837 4.585943 3.528195 11.846534 7.247704 12.135354 11.223659 9.651858 8.568034 9.881685 1.975690 9.840208 7.858070 8.050413 4.298598 3.914336 8.170521 1.767717 10.347418 9.050921 8.598231 3.882535 4.125553 7.956880 10.828789 0.387856 5.913193 10.048247 3.467872 0.570034 6.528342 9.767143 6.122578 8.575294 2.949172 8.747870 6.123539 9.788106 10.423142 4.954159 0.532806 1.181384 0.597782
10.717801 3.100100 2.232151 10.029548 5.539952 6.655636 0.110643 10.612126 10.896969 9.189658 1.033474 6.884610 6.570847 3.321652 1.888055 11.660506 4.815225 4.176351 6.831888 0.696683 2.721641 6.359574 8.854342 5.208546 1.951836 6.976829 4.351165 6.643701 5.907399 10.553046 11.441131 11.139858 2.350672 3.623789 11.493924 9.656028 3.153886 5.256709 1.831571 1.853078 6.860437 0.256206 0.943893 3.245522 6.189428 0.371917 9.372569 4.241383 1.254679 9.466089 1.086793 11.786234 1.332805 7.986249 5.414019 11.157794 6.475991 4.041666 3.467628 4.502209 2.991936 11.190080 3.542153 9.079735 10.134313 1.389219 3.833182 9.934892 12.050369 5.711986 8.640375 1.391849 8.932434 3.472683 8.182643 4.964727 9.037470 8.142269 2.301548 5.559501 6.754475 11.462726 7.900660 6.943203 8.783640 6.357087 3.272932 9.641327 2.433660 10.368181 4.095503 8.702100 3.686905 8.855036 1.418457 4.040258 1.913538 2.990192 2.943463 8.602674 8.378009 6.956146 4.144128 3.298555 7.661620 8.870529 4.179166 0.574100 5.537381 3.291172 10.338326 7.156406 9.243606 9.822227 11.024274 8.072273 1.685799 0.079416 1.507667 10.545823 6.548329 4.181138 6.674860 6.868594 6.133435 1.282097 11.202106 10.780471 7.380735 4.799147 0.814420 4.842179 0.957722 6.837217 9.015279 4.113951 0.386514 0.693968 5.179149 5.762138 3.923281 4.789628 6.781045 6.790045 7.601705 11.440617 8.150987 1.279984 3.686137 10.882164 3.633600 3.127162 0.009538 6.944329 11.145247 0.045349 9.975083 9.701824 9.497305 1.845820 9.397929 8.831866 7.840323 3.818721 4.207681 7.258022 1.090543 10.205384 8.515933 9.044575 3.698361 4.158295 7.818857 10.466395 11.793990 5.563329 11.096724 2.593118 0.923754 7.497462 9.575279 6.643364 9.571327 2.513577 9.363210 6.307236 10.391706 10.844943 5.011742 0.747212 1.259234 1.297830 11.161636 3.804891 2.880933 10.873236 5.359715 6.158142 12.083145 11.440616 10.569782 9.271958 0.956970 5.946318 6.444095 2.403443 2.216042 0.302864 5.329552 3.759862 7.758784 0.869221 3.461037 5.590915 8.573792 4.599210 1.697259 6.335752 4.940888 5.987250 6.399811 10.237619 11.114809 11.269759 3.483204 3.810294 12.004152 10.501319 3.751777 5.535984 2.604357 1.173849 6.224734 0.068215 1.470437 2.790378 5.595389 11.527044 9.810607 4.388765 1.980397 9.876565 0.856557 0.237970 1.795504 7.241732 5.970751 11.554635 7.146574 3.429017 3.130630 3.735700 3.613855 11.896338 3.883966 8.580647 10.673334 0.655074 4.530984 9.526898 0.514695 5.335079 8.238745 2.291487 9.600315 3.997983 7.741338 4.443930 9.715877 7.466763 3.340956 5.873742 6.669396 10.545471 7.926791 6.886635 8.765836 5.455996 3.627361 9.662564 3.075157 11.098093 3.721951 9.513189 3.668271 8.660997 2.447963 4.181369 1.661993 2.240476 2.436827 8.544711 8.992975 7.770852 3.285571 3.880904 7.312580 9.211000 3.552040 1.255331 6.144714 4.230456 10.389533 7.063924 8.360941 10.118976 11.381786 8.574560 2.377450 0.586450 2.262663 10.630744 5.715261 3.703153 6.879064 6.363050 5.459195 1.502880 11.272472 11.733251 7.544552 5.180672 0.034316 5.681781 1.256986 7.718660 9.443015 4.710826 0.706185 11.998703 4.836173 6.241838 4.603563 5.562112 6.410647 6.565554 8.413246 11.970235 7.839112 2.049649 3.324968 11.431426 3.645587 3.730005 0.697247 6.840897 10.694724 11.398927 9.051133 9.690299 9.723087 1.036419 9.931142 9.178351 7.244029 4.001168 4.915689 6.557831 1.885067 10.264449 8.295602 9.511972 2.833797 3.494714 7.082726 10.555751 10.828915 5.802656 11.170855 2.867541 0.259449 8.241276 8.466443 6.197943 9.823492 1.849436 9.734004 5.701855 10.736430 10.573191 6.009050 0.240317 0.330877 1.605206 11.244711 2.408990 2.050054 9.255775 5.519801 5.878958 11.293166 10.440177 10.492805 9.964248 1.173548 7.386903 7.434548 3.385426 1.226277 11.988723 4.451205 5.019577 6.714630 11.920929 2.400231 7.128728 9.070814 4.633424 1.248515 7.583169 4.729840 6.473848 6.187416 11.504323 10.615783 10.888024 2.066089 3.355260 10.598255 9.874530 2.639085 5.903863 1.379815 1.533004 7.630634 0.549551 1.342665 4.015556 6.292135 0.904242 9.787578 3.446381 0.452683 9.717954 0.505805 12.036782 1.569303 8.885280 5.670224 10.286746 6.006744 4.428465 2.703225 5.066011 2.703050 11.475462 2.771839 9.710685 9.491545 0.986697 3.782305 10.946913 0.265942 6.715859 8.863828 1.650177 9.083021 2.550794 7.603060 4.328120 8.762708 8.809967 1.836522 5.802872 7.670147 11.820524 8.766269 7.050029 7.987048 6.311672 2.931543 9.638162 2.918654 9.581230 3.346339 8.056943 3.511697 9.525439 1.600253 3.273131 2.255300 3.618468 2.237412 7.709878 8.637920 6.337603 3.732236 2.378126 7.535374 8.782115 4.865547 1.195494 5.119748 3.273725 9.351101 6.411412 9.296711 9.285705 10.555563 7.324160 2.033105 11.287650 1.777622 10.919002 7.265055 3.932132 7.278783 6.327029 6.906489 1.430008 11.045631 10.217348 8.231477 5.339376 0.782149 4.077236 0.488043 7.201223 8.314878 3.375181 1.221911 0.893393 4.987344 4.844782 4.030330 5.136318 7.572473 7.169670 7.410816 11.921503 9.053385 0.877363 4.352573 11.312330 4.360969 3.506209 11.526358 6.848412 12.020719 11.449449 10.154709 8.680593 9.473929 1.718913 9.212371 7.955485 7.277577 3.467106 3.404520 8.068190 1.608495 10.251716 8.770104 8.000116 3.524860 3.993990 8.614056 10.964574 0.168400 5.946738 10.182862 2.936353 0.594887 6.646269 9.694353 6.383846 8.682740 2.870580 8.693077 5.762948 9.728859 10.073095 4.664204 0.413885 1.412001 0.344720
