12.136090 0.000000 0.000000 0.000000 12.136090 0.000000 0.000000 0.000000 12.136090
12.103206 0.000000 0.000000 0.000000 12.103206 0.000000 0.000000 0.000000 12.103206
12.097396 0.000000 0.000000 0.000000 12.097396 0.000000 0.000000 0.000000 12.097396
11.974639 0.000000 0.000000 0.000000 11.974639 0.000000 0.000000 0.000000 11.974639
12.159639 0.000000 0.000000 0.000000 12.159639 0.000000 0.000000 0.000000 12.159639
12.191469 0.000000 0.000000 0.000000 12.191469 0.000000 0.000000 0.000000 12.191469
12.204787 0.000000 0.000000 0.000000 12.204787 0.000000 0.000000 0.000000 12.204787
12.108673 0.000000 0.000000 0.000000 12.108673 0.000000 0.000000 0.000000 12.108673
12.156758 0.000000 0.000000 0.000000 12.156758 0.000000 0.000000 0.000000 12.156758
12.175101 0.000000 0.000000 0.000000 12.175101 0.000000 0.000000 0.000000 12.175101
