10.704282 3.195815 2.339469 9.941341 5.165951 6.819655 12.121798 10.616032 10.640378 9.342395 1.118847 6.574122 6.799542 3.172162 2.024545 11.751717 5.185734 4.451176 6.911427 0.126751 3.232932 5.945220 8.805837 5.123573 1.977840 6.953338 4.180641 6.868777 6.209639 10.563171 11.158188 11.463651 2.538490 3.678462 11.893271 9.359678 2.906641 5.200186 1.684565 1.700035 6.980268 0.136259 0.880429 3.388789 6.117224 0.653262 9.310664 4.155067 1.448137 9.614593 1.085883 11.807936 1.198454 8.109526 5.414153 11.079220 6.509734 3.808297 3.271945 4.896557 2.604147 10.988782 3.527575 8.635710 9.928054 1.376344 3.853056 9.603984 11.993118 5.860826 8.588685 1.335847 8.626443 3.291581 8.060667 5.138570 8.990328 8.272038 2.326520 5.475488 7.191452 11.396851 8.115004 7.296620 9.027492 6.677958 3.148475 9.725619 2.555343 10.777061 3.915148 8.633547 3.216772 9.271061 1.787782 4.089130 1.641364 3.219430 3.203593 8.764272 8.539546 7.051118 4.172954 3.405850 7.890050 9.003748 4.389793 0.424154 5.711236 3.460691 10.169616 6.999302 9.083293 10.339297 10.865596 8.264658 1.935959 11.981598 1.195578 10.917038 6.514176 4.359208 6.877033 6.644002 6.023856 1.393776 11.287940 10.729938 7.479824 4.624349 0.624130 4.673352 1.112211 6.900874 8.735687 4.270964 0.546795 11.935884 5.260727 5.302386 3.686472 4.898526 6.318333 6.912252 7.810626 11.480054 7.725951 1.392758 3.130140 10.588871 3.887427 3.257863 0.265373 7.153662 11.229947 11.828646 9.709830 9.578077 9.775549 2.030242 9.637889 8.979417 8.288987 4.181252 4.897323 7.354038 1.341921 10.103251 8.542277 9.538090 4.078058 4.264328 7.047627 10.512596 12.066249 5.590239 10.822259 3.083668 1.069056 7.209217 9.483187 6.762658 9.371394 2.541877 9.656950 6.092341 10.329711 11.084884 4.977687 0.663578 1.405430 1.492003 11.199413 3.614299 2.998374 10.775495 5.325378 6.316117 12.040187 11.571270 11.018164 9.464736 1.256494 5.583527 6.187871 2.381737 2.079813 0.353499 5.767849 4.118994 7.731589 0.514236 3.457974 5.255784 8.778599 4.564028 2.225244 6.419679 4.918641 5.963181 6.721814 10.491150 11.068018 11.002903 3.378916 3.739678 11.958910 10.459913 3.286604 5.736259 2.306002 1.050758 6.388730 11.800507 1.471156 2.804214 5.474127 11.875011 9.793250 4.468423 2.400165 9.517617 0.895936 0.596789 1.416935 7.735021 6.356533 11.294918 6.930145 3.136530 3.139731 4.042633 3.213276 11.656002 4.007361 8.210743 10.486362 0.585326 4.661063 9.313124 0.340326 5.183007 8.899547 2.358222 9.317714 3.945994 7.688407 5.239023 9.853829 7.865442 3.165590 5.952268 7.062607 10.412098 8.349851 6.961241 9.364319 5.988332 3.793587 9.321616 3.439764 11.381208 3.361188 9.719269 3.283525 8.928282 2.697118 4.432971 1.412109 2.639484 2.429653 8.511364 9.250727 7.688005 3.518335 4.237195 7.807029 9.553212 4.035300 1.071281 6.171374 4.524143 10.082567 7.165447 8.148080 10.423615 11.750294 8.475025 2.391129 0.520372 2.020220 10.745968 5.812333 3.725633 6.989644 5.995287 5.460035 1.833881 11.440221 11.598481 7.902614 5.047199 0.043168 5.421795 1.721308 7.600847 9.006552 5.187971 0.305891 12.005333 5.110708 6.115827 4.347126 5.564387 5.687150 6.985352 8.528860 11.878365 7.198002 2.440267 3.355877 10.960248 3.775992 3.964350 0.819338 6.903090 10.408623 11.130995 8.752507 9.812529 10.017048 1.353559 9.964235 9.515667 7.541586 4.206983 5.510442 6.756021 2.154937 10.214551 8.480183 9.788092 3.077143 3.492930 6.621133 10.815215 11.130028 5.867189 10.795035 3.377880 0.544504 8.098135 8.623101 6.389440 9.801753 2.162981 9.770935 5.203230 10.521602 11.131262 5.865867 0.167416 0.735491 2.010089 11.410414 2.587775 1.892165 9.405632 4.832260 6.053931 11.251582 10.255683 10.550823 10.203140 1.238133 7.191499 6.870060 3.312159 1.084953 0.056272 4.485262 4.798096 7.052817 11.811794 2.429488 6.662175 8.898397 4.753550 1.298982 7.623252 4.512761 6.931067 5.988920 11.456281 10.373090 11.105754 2.036761 3.047900 10.907012 9.408951 2.520937 5.876716 1.099028 1.267177 7.722314 0.316849 1.597684 4.206504 6.362799 0.973639 9.810688 3.382151 0.928016 10.137194 0.440849 11.877730 1.414836 8.982708 5.573419 10.394704 5.997060 4.329295 2.413196 4.663682 2.275588 11.382601 2.737558 9.479569 9.596301 1.197050 3.868050 10.626403 11.960397 6.596865 9.248168 1.508987 8.845956 2.324246 7.727156 4.390798 8.802404 8.721424 1.626591 6.198815 7.713795 11.818021 8.983602 7.041014 8.464095 6.150702 2.732279 10.052118 3.045253 9.902793 3.181529 8.083760 3.564223 10.057420 2.117915 3.587598 2.140103 3.903323 2.676195 7.969861 8.453125 6.416510 3.609642 2.627735 7.778252 8.296818 4.969682 0.745366 5.203322 3.249067 9.098949 6.263875 9.250994 9.692585 10.583104 7.559416 2.480099 11.250818 1.891651 11.158655 7.106682 4.172113 7.493945 6.551436 7.165558 1.291032 10.998752 10.051732 8.294602 5.226833 0.569004 3.826269 0.402126 7.485558 8.240320 4.094434 1.412524 0.159103 4.784642 4.527013 4.053353 5.090359 7.349880 7.374166 7.565625 12.072021 8.540238 0.985155 3.892479 10.697837 4.585943 3.528195 11.846534 7.247704 12.135354 11.223659 9.651858 8.568034 9.881685 1.975690 9.840208 7.858070 8.050413 4.298598 3.914336 8.170521 1.767717 10.347418 9.050921 8.598231 3.882535 4.125553 7.956880 10.828789 0.387856 5.913193 10.048247 3.467872 0.570034 6.528342 9.767143 6.122578 8.575294 2.949172 8.747870 6.123539 9.788106 10.423142 4.954159 0.532806 1.181384 0.597782
10.717801 3.100100 2.232151 10.029548 5.539952 6.655636 0.110643 10.612126 10.896969 9.189658 1.033474 6.884610 6.570847 3.321652 1.888055 11.660506 4.815225 4.176351 6.831888 0.696683 2.721641 6.359574 8.854342 5.208546 1.951836 6.976829 4.351165 6.643701 5.907399 10.553046 11.441131 11.139858 2.350672 3.623789 11.493924 9.656028 3.153886 5.256709 1.831571 1.853078 6.860437 0.256206 0.943893 3.245522 6.189428 0.371917 9.372569 4.241383 1.254679 9.466089 1.086793 11.786234 1.332805 7.986249 5.414019 11.157794 6.475991 4.041666 3.467628 4.502209 2.991936 11.190080 3.542153 9.079735 10.134313 1.389219 3.833182 9.934892 12.050369 5.711986 8.640375 1.391849 8.932434 3.472683 8.182643 4.964727 9.037470 8.142269 2.301548 5.559501 6.754475 11.462726 7.900660 6.943203 8.783640 6.357087 3.272932 9.641327 2.433660 10.368181 4.095503 8.702100 3.686905 8.855036 1.418457 4.040258 1.913538 2.990192 2.943463 8.602674 8.378009 6.956146 4.144128 3.298555 7.661620 8.870529 4.179166 0.574100 5.537381 3.291172 10.338326 7.156406 9.243606 9.822227 11.024274 8.072273 1.685799 0.079416 1.507667 10.545823 6.548329 4.181138 6.674860 6.868594 6.133435 1.282097 11.202106 10.780471 7.380735 4.799147 0.814420 4.842179 0.957722 6.837217 9.015279 4.113951 0.386514 0.693968 5.179149 5.762138 3.923281 4.789628 6.781045 6.790045 7.601705 11.440617 8.150987 1.279984 3.686137 10.882164 3.633600 3.127162 0.009538 6.944329 11.145247 0.045349 9.975083 9.701824 9.497305 1.845820 9.397929 8.831866 7.840323 3.818721 4.207681 7.258022 1.090543 10.205384 8.515933 9.044575 3.698361 4.158295 7.818857 10.466395 11.793990 5.563329 11.096724 2.593118 0.923754 7.497462 9.575279 6.643364 9.571327 2.513577 9.363210 6.307236 10.391706 10.844943 5.011742 0.747212 1.259234 1.297830 11.161636 3.804891 2.880933 10.873236 5.359715 6.158142 12.083145 11.440616 10.569782 9.271958 0.956970 5.946318 6.444095 2.403443 2.216042 0.302864 5.329552 3.759862 7.758784 0.869221 3.461037 5.590915 8.573792 4.599210 1.697259 6.335752 4.940888 5.987250 6.399811 10.237619 11.114809 11.269759 3.483204 3.810294 12.004152 10.501319 3.751777 5.535984 2.604357 1.173849 6.224734 0.068215 1.470437 2.790378 5.595389 11.527044 9.810607 4.388765 1.980397 9.876565 0.856557 0.237970 1.795504 7.241732 5.970751 11.554635 7.146574 3.429017 3.130630 3.735700 3.613855 11.896338 3.883966 8.580647 10.673334 0.655074 4.530984 9.526898 0.514695 5.335079 8.238745 2.291487 9.600315 3.997983 7.741338 4.443930 9.715877 7.466763 3.340956 5.873742 6.669396 10.545471 7.926791 6.886635 8.765836 5.455996 3.627361 9.662564 3.075157 11.098093 3.721951 9.513189 3.668271 8.660997 2.447963 4.181369 1.661993 2.240476 2.436827 8.544711 8.992975 7.770852 3.285571 3.880904 7.312580 9.211000 3.552040 1.255331 6.144714 4.230456 10.389533 7.063924 8.360941 10.118976 11.381786 8.574560 2.377450 0.586450 2.262663 10.630744 5.715261 3.703153 6.879064 6.363050 5.459195 1.502880 11.272472 11.733251 7.544552 5.180672 0.034316 5.681781 1.256986 7.718660 9.443015 4.710826 0.706185 11.998703 4.836173 6.241838 4.603563 5.562112 6.410647 6.565554 8.413246 11.970235 7.839112 2.049649 3.324968 11.431426 3.645587 3.730005 0.697247 6.840897 10.694724 11.398927 9.051133 9.690299 9.723087 1.036419 9.931142 9.178351 7.244029 4.001168 4.915689 6.557831 1.885067 10.264449 8.295602 9.511972 2.833797 3.494714 7.082726 10.555751 10.828915 5.802656 11.170855 2.867541 0.259449 8.241276 8.466443 6.197943 9.823492 1.849436 9.734004 5.701855 10.736430 10.573191 6.009050 0.240317 0.330877 1.605206 11.244711 2.408990 2.050054 9.255775 5.519801 5.878958 11.293166 10.440177 10.492805 9.964248 1.173548 7.386903 7.434548 3.385426 1.226277 11.988723 4.451205 5.019577 6.714630 11.920929 2.400231 7.128728 9.070814 4.633424 1.248515 7.583169 4.729840 6.473848 6.187416 11.504323 10.615783 10.888024 2.066089 3.355260 10.598255 9.874530 2.639085 5.903863 1.379815 1.533004 7.630634 0.549551 1.342665 4.015556 6.292135 0.904242 9.787578 3.446381 0.452683 9.717954 0.505805 12.036782 1.569303 8.885280 5.670224 10.286746 6.006744 4.428465 2.703225 5.066011 2.703050 11.475462 2.771839 9.710685 9.491545 0.986697 3.782305 10.946913 0.265942 6.715859 8.863828 1.650177 9.083021 2.550794 7.603060 4.328120 8.762708 8.809967 1.836522 5.802872 7.670147 11.820524 8.766269 7.050029 7.987048 6.311672 2.931543 9.638162 2.918654 9.581230 3.346339 8.056943 3.511697 9.525439 1.600253 3.273131 2.255300 3.618468 2.237412 7.709878 8.637920 6.337603 3.732236 2.378126 7.535374 8.782115 4.865547 1.195494 5.119748 3.273725 9.351101 6.411412 9.296711 9.285705 10.555563 7.324160 2.033105 11.287650 1.777622 10.919002 7.265055 3.932132 7.278783 6.327029 6.906489 1.430008 11.045631 10.217348 8.231477 5.339376 0.782149 4.077236 0.488043 7.201223 8.314878 3.375181 1.221911 0.893393 4.987344 4.844782 4.030330 5.136318 7.572473 7.169670 7.410816 11.921503 9.053385 0.877363 4.352573 11.312330 4.360969 3.506209 11.526358 6.848412 12.020719 11.449449 10.154709 8.680593 9.473929 1.718913 9.212371 7.955485 7.277577 3.467106 3.404520 8.068190 1.608495 10.251716 8.770104 8.000116 3.524860 3.993990 8.614056 10.964574 0.168400 5.946738 10.182862 2.936353 0.594887 6.646269 9.694353 6.383846 8.682740 2.870580 8.693077 5.762948 9.728859 10.073095 4.664204 0.413885 1.412001 0.344720
10.787091 2.778992 2.460896 9.855674 5.762531 6.473827 11.860632 10.965657 11.360736 9.201483 1.361069 6.839265 6.422224 3.736292 1.342338 11.785334 4.644008 4.089715 6.795237 0.476696 2.384653 6.823480 9.298735 5.141871 1.738148 6.638025 4.002949 6.251191 6.088012 10.478863 11.262764 11.782867 2.416011 3.293934 11.674003 9.720982 3.540923 5.355545 1.692520 1.869687 6.962481 0.480162 1.375230 3.067812 5.951195 0.568701 9.394411 4.109920 1.320801 9.435763 1.219981 11.852674 1.177772 7.682967 5.578444 11.130391 6.776957 4.041652 3.685364 4.677616 2.954764 11.172600 3.301567 9.434186 10.053818 1.197554 4.019106 9.921220 0.771034 5.887874 8.610756 2.161550 8.657076 3.834314 7.984092 5.110794 8.746767 8.217780 2.295134 5.486449 6.741096 11.439838 8.066173 6.831875 9.032943 6.200385 3.089356 9.583706 2.789400 10.433902 4.047700 8.593388 4.114684 8.894803 1.554369 4.191312 2.142138 3.075430 2.825942 8.554760 8.272682 6.929083 3.928918 3.137575 7.742627 9.120065 3.884704 0.686015 5.499250 3.342355 9.814697 7.157369 8.868308 10.012632 10.857843 7.987425 1.246257 12.039523 1.417316 10.417161 6.460649 4.140793 6.673840 6.740197 6.293467 1.093935 11.718297 10.516545 7.616243 5.140767 1.004172 4.512865 0.779530 6.822474 8.695622 3.758422 0.731398 1.344864 5.048331 6.060804 3.804070 5.100069 6.739623 6.321602 7.755483 11.748378 8.350700 1.600938 3.497868 10.449698 3.833915 3.101734 0.171501 6.876921 10.646874 12.090876 10.018160 9.411922 9.751565 2.018407 9.454629 8.951211 7.478433 4.060965 4.128149 6.979894 1.071049 10.626219 8.727500 8.784693 3.363583 3.958417 7.831893 10.817981 11.734431 5.946056 11.014101 2.839439 0.924481 7.480588 8.993673 6.481974 9.778094 2.191691 9.140356 6.439715 10.361770 10.342532 4.769961 0.743065 1.194184 1.252234 11.022471 3.330023 3.122151 10.423208 5.843362 5.658572 0.089029 11.763078 10.758179 9.277244 1.386260 5.981395 6.297891 2.677460 1.410030 0.385604 5.177722 4.025373 7.681502 0.694211 2.698042 5.977700 8.708756 5.002569 2.183574 6.244626 4.610287 5.369847 6.622179 10.370015 11.022382 11.502648 3.307451 2.991734 0.040185 10.522878 3.850137 5.935599 2.472367 1.105693 6.756117 11.980059 2.108191 2.502113 5.517723 11.697254 9.722363 4.349689 2.459922 9.506714 1.007308 0.443530 1.710388 7.195087 6.339051 11.449697 7.271664 3.387257 3.364062 3.974748 3.726612 11.723786 3.494140 8.561248 10.147777 0.798734 4.876573 9.618051 1.233634 5.222491 8.169242 3.035124 9.170312 4.366874 7.271082 5.273419 9.616931 7.768524 3.179185 6.081352 6.658903 10.531072 8.005456 6.996825 9.020868 5.411495 3.623019 9.568744 3.132979 11.316596 3.645358 9.306507 3.820488 8.512109 2.552609 4.160398 1.920757 2.443898 2.184454 8.197812 7.925691 7.710954 3.208211 3.859892 7.623593 9.648645 3.403743 1.379038 5.902553 4.177122 9.924759 7.006771 7.916834 10.314347 11.259910 7.496828 0.423271 0.363787 2.216444 10.691301 5.452609 3.923892 6.971839 6.131477 5.256399 1.177349 11.985102 11.427235 7.719466 5.008330 0.630224 5.449702 1.055093 7.605891 9.252474 4.467763 0.504647 1.879898 5.066078 6.453898 4.801588 5.934889 6.073942 6.459747 8.317997 0.411159 8.056940 2.411684 3.369478 10.947929 4.295910 3.880038 0.439988 6.720480 9.694963 11.555085 9.163792 9.555084 9.718785 1.171796 10.019371 8.797895 6.865707 3.730352 4.984519 6.278844 1.823124 10.335499 8.776716 9.489026 2.692459 3.100988 7.475598 11.331760 10.704807 6.005990 11.061259 2.777455 0.698589 8.521441 8.178193 6.048998 10.159388 1.631507 9.510339 5.609108 10.534309 10.508070 5.820972 0.198776 0.444178 1.655803 11.657050 2.283081 2.133961 9.206710 6.425827 6.186731 11.295553 10.475736 10.697409 10.167498 1.213066 6.982514 7.334876 3.941824 1.427615 12.092536 4.116303 4.770061 6.802034 11.733061 1.756671 7.289928 9.166441 4.436238 1.178667 7.265607 4.426398 6.368388 6.143428 11.447109 10.755067 11.266819 1.763014 3.049263 10.809070 9.522607 2.713363 5.849971 1.467476 1.576809 7.977665 0.704875 1.779101 3.823098 6.255225 0.823322 9.503431 3.115160 0.731624 9.906744 0.441151 12.066703 1.353577 8.655480 6.031100 10.641899 6.032306 4.569217 2.829439 4.800689 2.892595 11.462444 2.411612 9.778337 9.277366 0.833484 4.084936 10.927470 0.498221 6.724132 8.496731 2.494651 8.879939 2.915841 7.687343 4.581151 8.700685 9.087018 1.877923 5.999854 7.332902 11.751930 9.043660 7.039222 8.277806 6.125589 2.501089 9.117306 3.374157 9.681372 3.605309 7.869794 3.698707 9.608199 1.858075 3.669053 2.332750 3.907660 2.491503 7.792426 8.937877 6.667735 3.454497 2.068186 7.575315 9.545129 4.702938 0.922437 4.802236 3.218164 9.100266 6.486175 9.077832 9.215150 10.650353 7.299043 1.940759 11.215596 1.658717 10.559015 7.026797 3.906211 7.525300 6.288008 6.995306 1.688090 10.873287 10.096128 8.340134 5.824261 0.382694 4.074359 0.239164 7.405203 8.098021 3.981449 1.652618 1.089519 4.616903 5.039801 3.882511 5.120010 7.509855 6.935375 7.489052 0.050395 9.211803 1.197037 4.451934 10.944665 4.204974 3.024621 11.356719 6.879606 11.100498 11.138183 10.090399 8.511680 9.144021 2.031952 9.158917 8.093022 7.042829 3.819275 3.388294 7.779046 1.462587 11.121151 8.859447 7.908417 3.350432 4.247145 8.513707 11.465403 0.059863 6.321863 10.192951 3.105912 0.226615 6.884337 9.472590 5.743122 9.425979 2.793889 8.377989 6.182642 9.760114 9.766090 4.662342 0.304292 1.360946 0.371550
10.856399 2.625446 2.713539 9.482427 5.251630 5.783566 11.954624 10.776162 11.170060 9.358920 1.441980 6.714297 6.470267 3.631816 1.259018 11.596013 4.467915 4.383384 6.638322 0.566381 2.112955 6.517271 9.184099 5.603108 1.796622 6.304821 3.766143 5.832495 5.895805 10.706095 10.769817 11.785352 2.648354 3.363319 11.330250 10.077008 3.525328 5.194781 1.260658 1.806357 7.126983 11.964340 1.233338 2.885175 5.633516 0.763616 8.910680 3.513890 1.414037 9.584087 1.124498 11.836980 1.021483 7.438858 5.285589 11.132603 6.790542 4.106946 3.283768 4.478787 3.151885 11.225207 3.965629 9.228999 9.890344 1.132075 4.046086 9.771505 0.812052 5.644155 8.430002 2.321837 8.489847 3.818961 7.700134 4.894927 8.864254 8.328981 2.634978 5.546417 6.908564 11.217925 8.075910 6.551256 8.867945 6.023021 2.488556 9.497627 3.047182 10.350501 3.919810 8.673716 4.126012 8.388325 1.481109 3.963142 2.153310 3.377625 2.707681 8.563259 7.701389 7.086310 4.028166 3.273393 7.782222 9.077456 3.762425 0.914311 5.678834 3.491466 9.836047 7.040464 8.865169 9.923971 10.507709 7.280215 0.710133 11.775306 1.624492 10.144887 6.301241 4.370953 6.532347 6.648237 6.337693 1.291834 11.325456 10.431457 8.011737 5.199710 0.813102 4.622870 0.888087 6.851155 8.421331 4.069847 0.841505 1.673603 5.198343 5.591374 3.640884 5.115248 6.770662 6.416317 7.606812 11.881108 8.506104 1.637758 3.671236 10.182607 3.781447 3.108226 11.740756 7.101542 10.570909 11.897130 9.775908 9.067695 10.098796 1.763378 9.317944 8.975879 7.508675 4.086204 3.930113 6.677224 1.137841 10.953555 8.201898 8.853311 3.269303 3.721913 7.957165 10.607859 11.546967 6.112175 10.612993 3.121153 0.685553 7.335207 8.582537 5.922987 9.481752 2.389089 8.915602 6.394222 10.479202 10.333078 4.810113 0.693790 1.241192 1.105089 11.242671 3.607321 2.879355 10.463593 5.217107 5.129301 11.924695 11.706334 11.062478 9.220161 1.504753 5.901293 5.860449 2.903267 1.408430 0.236929 5.172235 4.072978 7.396796 0.883880 2.434900 6.335190 8.195817 5.812080 1.831244 6.200005 4.681949 5.366704 6.704073 10.610629 10.909238 11.523315 3.604806 3.193981 11.970085 10.953793 4.407380 5.560177 1.934278 0.872475 6.952729 11.781182 1.855659 2.747277 4.805551 0.341101 9.381035 4.218101 2.344623 9.763032 0.789889 0.664347 1.325578 7.083841 5.966777 11.568828 7.597343 3.372143 3.429807 3.828073 3.936531 11.755857 3.698896 8.487662 10.334522 0.520356 4.724407 9.366574 1.356129 5.045233 8.784180 3.001968 8.905579 4.173694 6.929529 4.676894 9.775593 8.031118 3.457556 6.052708 6.693905 10.323377 7.818913 6.917334 8.617487 5.304252 3.203480 9.392671 3.617674 11.223437 3.678249 9.563532 3.921373 8.324292 2.489181 3.925489 1.792052 2.546114 2.327673 8.603725 7.351222 7.957093 3.184275 4.015042 7.829077 9.690136 3.343960 1.586841 5.777757 4.337098 10.043161 6.890016 7.760595 9.873887 10.702444 6.542195 0.170264 0.454499 2.210842 10.130545 5.578158 3.896552 6.899711 6.259314 5.441862 1.226645 11.455783 11.325369 8.216506 5.513832 0.529812 5.468341 1.259199 7.680865 8.636009 5.051774 0.775442 1.870635 4.977989 6.344183 4.409052 5.608618 5.731203 6.450571 8.190074 0.244435 7.868058 2.432118 3.499889 10.845274 3.811950 3.904253 0.382014 6.812234 9.910951 11.324677 8.802550 8.925196 9.773758 0.850307 9.591607 8.978734 7.219585 4.197074 4.938563 6.331929 1.819457 10.440605 8.637833 9.175363 2.567572 3.022476 7.444436 10.968801 11.125490 5.275317 10.486393 2.608290 0.062060 7.943788 7.782716 5.871455 9.857900 1.842385 8.815272 5.598820 10.516844 10.562650 5.827644 0.321650 0.468347 1.408839 11.542140 2.039380 2.272779 9.042713 6.131049 5.740845 11.013841 10.611651 11.059567 10.345796 1.178929 7.161321 7.413203 3.482416 1.191516 0.190900 3.748048 4.651622 6.924366 11.731799 1.778567 6.907328 8.877162 4.532447 1.134423 7.154259 3.837532 6.172193 5.582290 11.500954 10.307944 11.191850 2.163099 2.736579 10.525731 10.210249 2.978355 6.047107 1.421920 1.685816 8.064699 0.441776 1.604901 3.633224 6.120893 0.542949 9.496311 2.560684 0.912573 9.952514 0.220345 11.523252 1.793725 8.240113 5.703446 10.441403 6.111778 4.165866 2.365115 4.679547 2.621890 11.196758 3.216523 9.741676 9.205716 0.873972 4.285106 10.787002 0.706554 6.632890 8.860293 2.361011 8.850905 2.646278 7.416278 4.272864 8.594041 8.933916 1.952228 6.123496 7.491498 11.587980 8.846408 7.114898 8.098149 6.030484 1.920023 9.181783 3.525340 9.501124 3.009179 8.414204 3.860415 9.284473 1.505367 3.498578 2.526927 4.032077 1.940957 8.077523 8.495548 7.185413 3.547958 2.481609 7.667052 9.135525 4.845576 1.037518 4.989551 3.326554 9.152723 6.303226 8.935673 9.076576 10.033805 6.835318 1.515498 10.972853 2.153445 10.218654 7.065301 4.035899 7.102426 5.980749 7.008224 1.829321 10.781804 10.188247 8.916899 5.706321 0.518789 3.989409 0.326088 7.270847 7.704843 4.011907 1.651953 1.030891 4.947634 4.821899 4.128889 5.074619 7.282486 7.201591 7.832876 0.247904 9.458330 1.384681 4.671458 10.331514 4.421004 3.289406 10.998109 7.136596 11.407563 11.371659 10.138300 8.158316 9.993377 2.073340 9.430067 8.145833 6.776888 4.224152 3.356740 6.886189 1.583004 11.787936 8.492242 8.012729 3.106545 3.930774 8.818206 11.403990 11.757043 6.528312 9.761548 3.893449 0.129145 7.246858 8.556382 4.999594 8.910360 3.089136 8.378695 6.153611 9.691051 9.863119 4.681308 0.839802 1.473874 0.140524
11.187091 2.881251 3.022177 9.360882 5.408427 5.433735 0.074391 11.133577 11.032878 9.377988 1.161976 6.797289 6.426689 3.285478 1.332857 11.863876 4.706917 4.694800 7.175577 0.581321 2.194117 6.795456 9.270253 6.211345 1.668981 6.686165 4.146111 6.036783 6.131850 10.677989 11.140160 11.967590 2.131649 3.333693 11.797233 10.411952 3.386353 5.462595 1.423652 1.507579 7.494956 11.823223 1.440125 3.067386 6.151278 0.526880 9.037310 3.382066 1.767007 9.878946 1.122880 12.159163 1.025399 7.695096 5.721120 11.448798 7.083887 4.059771 2.779024 4.424415 3.288035 11.495721 4.398681 9.652318 9.818868 1.540559 4.387718 10.147286 0.566056 5.893574 8.698063 2.231867 8.575576 3.734922 7.643821 4.863065 9.145904 8.626556 2.783126 5.372264 6.910696 11.290953 7.739536 6.708771 9.070000 6.146280 2.448369 9.806837 3.407244 10.425525 3.769677 8.995390 4.071517 8.928698 1.669030 4.001475 1.954923 3.321717 2.613483 8.819049 7.510759 7.649522 4.460114 3.236708 7.795033 9.495336 3.665679 1.051463 5.978129 3.483745 9.949262 7.198291 9.159410 10.275585 10.300464 7.400054 0.307767 11.964576 1.654724 10.193733 6.223159 4.883553 6.584022 6.618864 6.338604 1.196522 10.987973 10.196536 7.949336 5.658121 0.566806 4.718866 0.976221 6.973313 8.509815 4.367163 0.637012 1.007466 4.842443 5.296390 3.517565 5.008879 7.140018 6.419784 7.664326 0.232950 8.828551 1.157717 3.748289 10.387834 3.786184 3.019023 11.943906 7.430738 11.090895 0.026163 9.936741 9.049767 10.040399 1.824792 9.696471 9.203448 7.448257 3.937401 3.956287 6.977356 1.464555 11.270282 8.135210 9.070216 3.551417 4.048384 8.236697 10.845889 11.421315 5.784537 10.412908 3.563084 0.834044 8.060601 8.252792 5.832607 9.436845 2.489868 8.988362 6.690375 10.638966 10.622172 5.079796 0.557078 1.294101 1.061683 11.458124 3.600768 3.757674 10.387236 5.132568 5.269002 12.017989 11.954984 10.977112 9.095863 0.957172 5.784591 6.377063 2.302693 2.015892 12.152297 5.517605 4.347201 7.999141 0.863700 2.618153 6.231547 8.455128 6.186340 1.986778 6.357442 5.093818 5.361902 6.978035 10.650680 11.475754 11.980519 3.163230 2.758016 0.139941 10.843139 3.580028 5.662262 2.244562 0.563975 6.980642 11.620706 2.382606 2.668786 5.761389 12.017869 9.442846 3.892718 2.760606 9.729155 0.941950 0.709646 1.286074 7.204080 6.392447 11.750546 7.761875 3.473221 2.895209 3.482761 4.034532 12.096447 4.553497 9.143659 10.511632 1.085218 5.049934 9.926806 1.171963 4.948993 8.902907 2.822322 9.082082 4.351864 6.993026 4.612562 9.912695 8.258927 3.469092 5.933173 6.679702 10.361257 7.447192 7.007374 8.677739 5.655800 3.208027 9.464517 3.610487 11.392045 3.612186 9.975997 4.172095 8.243650 2.436269 3.935436 1.962439 2.586653 2.070253 8.613867 6.775652 8.363853 3.714469 3.623454 7.483768 9.932899 3.300968 1.952181 6.109782 4.411056 10.018179 6.982549 8.231052 10.507686 10.640570 6.599323 11.773736 0.506814 2.613842 10.551169 5.480026 4.254257 6.688498 6.132427 5.740280 1.438911 11.356764 11.200413 7.758307 5.588307 0.488420 5.716940 1.334075 7.934246 8.727969 5.344435 0.477749 1.309529 5.140441 5.827712 4.287365 5.701539 6.568037 6.800624 8.685993 0.446340 8.466558 1.741015 3.839401 11.171951 3.983300 3.827229 0.391243 7.440039 10.459342 11.346907 8.945895 9.227100 10.234268 1.331909 10.419308 9.267485 6.798075 4.077818 4.647874 6.447838 2.070759 10.598440 8.603493 9.279617 2.675211 3.193945 8.190182 11.155299 10.937890 5.122001 10.031212 2.947038 0.461772 8.916189 7.159811 6.045533 9.775057 1.519861 8.648141 6.467660 10.548602 10.640860 5.926786 12.042567 0.516334 1.123325 11.931785 2.510560 2.478639 9.181239 6.230876 5.835753 11.470255 10.624816 11.058335 10.302430 1.024931 7.250123 7.353955 3.235113 1.532015 0.304407 4.250370 5.388110 7.218724 11.920245 1.598930 7.307796 9.405863 5.319932 1.298872 7.680527 4.003686 6.317574 6.211283 11.753480 10.705486 11.189016 2.267314 2.923430 11.034227 10.811105 2.817162 6.233037 0.959929 1.434824 8.455968 0.253997 1.738004 3.877866 6.547099 0.755286 9.656152 2.684333 1.416115 10.654029 0.580202 0.008517 1.525559 8.488010 5.791088 10.547776 6.828073 4.475509 1.928673 4.151251 2.804285 11.893087 3.497931 9.843639 8.906138 1.123788 4.366349 11.207899 0.646155 6.700375 9.032722 2.807756 8.776481 2.810317 7.363451 4.429700 8.607191 9.433372 2.370588 5.827050 7.738719 11.083575 8.595091 7.023636 7.986760 6.119864 1.917108 8.987572 3.146751 9.972989 2.887905 8.704392 3.822869 9.700500 2.054512 3.695408 2.185297 3.911984 1.803957 8.463538 8.276334 7.849589 4.297720 2.174126 7.981114 9.382999 4.735839 1.163777 5.395567 3.284716 9.133921 6.634029 9.325540 9.463202 9.955505 7.044699 1.209196 11.084325 1.912382 10.466337 6.988326 4.410098 6.559625 6.155130 7.087032 1.538536 10.691914 10.055089 8.877622 6.318330 0.186568 3.976382 0.444359 7.361878 7.715818 4.499172 1.486174 0.578525 4.612545 4.615186 4.076380 4.708763 7.816413 7.197330 7.650443 0.658485 9.751094 0.650961 4.571374 10.454713 4.472609 3.110138 11.158135 7.367863 12.098115 11.837769 9.938231 8.045546 10.180282 2.402504 9.728016 8.285780 6.907545 4.027596 3.191214 7.181118 1.883105 12.153909 8.377912 8.176873 3.376462 4.498028 9.020351 11.285415 11.644437 6.325790 9.457323 4.048357 0.118564 7.708191 8.359153 4.746529 8.959844 3.050894 8.961132 5.842356 10.053090 9.965121 4.646911 0.510753 1.520036 12.149092