# LAMMPS data 
         192 atoms
2 atom types
          0.00000000         12.38463000   xlo xhi
          0.00000000         12.38463000   ylo yhi
          0.00000000         12.38463000   zlo zhi
          0.00000000          0.00000000          0.00000000  xy xz yz
 
Atoms # metal
 
    1  1          9.25545327          0.27562174          7.98873221
    2  1          8.96100726         11.25748273          4.33493694
    3  1          2.09635948          6.63600795          9.81174941
    4  1          1.05303718          0.30103613          2.30015369
    5  1          6.56486390          9.01345844         11.27920918
    6  1          0.75275010          6.78588141         11.94054451
    7  1         11.58336794          6.02568137          5.68473240
    8  1          1.17474149          1.08693167         10.80575706
    9  1          1.03432091          7.53371679          7.40956435
   10  1          5.97142455          9.12220022          7.38641400
   11  1          5.60050936         10.72254557          9.52666757
   12  1          0.80486394         10.31676436          8.75023568
   13  1          4.56147165         11.11353109          0.94646177
   14  1          4.11816272          7.19239297          2.50208524
   15  1         10.60850053          0.88120811          1.95870023
   16  1          6.15957427          9.14817932          4.46929607
   17  1          8.14987667          6.54802335          5.30270879
   18  1          3.18134557          9.60998803          3.20231016
   19  1          7.99811272          1.31313119          3.30323332
   20  1          0.99328905         10.67025487          4.29494133
   21  1          2.14006752         10.50822207          6.40649557
   22  1          9.22282710         11.00880088          1.03823145
   23  1          5.26217253          1.04666313          2.37431040
   24  1          7.12853490          0.63835769          0.07813677
   25  1         10.36514258          5.23742378          7.94491348
   26  1          6.67496919          3.33446481          9.12080270
   27  1          4.38025961          3.69883482          1.06169211
   28  1          8.68016717          3.45497069          1.63559253
   29  1          3.95977321          2.76734315         11.09857442
   30  1          8.76772538          8.99646172          9.02247729
   31  1          6.66468755          9.94682406          1.87543161
   32  1         11.37151695          0.79019657          4.83593517
   33  1          7.43907163          0.53963556          9.79479533
   34  1         11.90675776          0.39667450          8.29281836
   35  1          4.55322630          5.34161432         10.06685863
   36  1          3.77327954          0.02310608          5.64861032
   37  1          9.27319614          9.48253213          6.36500518
   38  1          2.00877106          5.94451920          4.35541181
   39  1          2.81153975          1.95801534          2.90131299
   40  1         10.03979550          1.47462124         11.60542117
   41  1          5.55863752          6.33843637          7.77637081
   42  1         11.62676945          3.89029897          3.90398032
   43  1         10.36916968         10.88230128         10.97664256
   44  1          4.95137882          2.10397855          7.45152248
   45  1          8.11226869          6.31538660          2.32855038
   46  1          3.50884941          0.13544863         10.08024841
   47  1         11.11146233          7.35487282          9.31840523
   48  1          1.22336149         11.10890329         12.00475654
   49  1          6.82652941          4.43006932         11.94013669
   50  1          5.06075276          6.81762155         12.17980372
   51  1          1.55208110          3.23711666          5.19357498
   52  1          2.16148403          5.05832906          1.56571769
   53  1          3.64362234          7.55256042          6.29098882
   54  1          1.78979057          1.84883034          7.66058738
   55  1         11.49392913          8.90925320          4.70472470
   56  1          0.88441155          2.84413290          0.64311552
   57  1         11.25366646          4.39740556          1.05857050
   58  1          3.16520789          9.62270677         10.63400851
   59  1          9.93404465          8.39777412          2.48312734
   60  1         11.65523846          9.10215465          0.37876525
   61  1          8.44548786          1.90286774          5.80722581
   62  1          7.97213486          4.40464775          7.04533574
   63  1         11.22643639          3.50577791          9.82287684
   64  1          1.37506252          3.74213302          9.78275341
   65  2          9.29186642         11.71895068          7.73085028
   66  2          8.51616864         12.04334718          3.90904054
   67  2          3.03055284          6.34322773          9.66089175
   68  2          1.50772452         12.19062103          1.61274432
   69  2          6.56067820          9.21076683         12.20658382
   70  2          1.40257603          6.71612987         11.22224611
   71  2         11.13186197          5.60161323          6.47177101
   72  2          0.49180571          1.15482620         10.07356215
   73  2          1.83241656          7.34384640          6.85999949
   74  2          5.66346335          8.23161252          7.57364378
   75  2          6.00813529         10.31508013          8.71004186
   76  2          0.31234061          9.48973201          8.80000487
   77  2          5.37331614         10.63532226          1.39108775
   78  2          3.63341027          8.00357647          2.80716163
   79  2         11.40961980          0.22117127          1.94418921
   80  2          6.17971004          8.19325850          4.45552669
   81  2          8.28733576          5.83318042          5.92062441
   82  2          3.48510058         10.34580162          2.60666033
   83  2          8.19966802          2.00048676          2.69171975
   84  2          0.89155692         11.50118887          3.76541834
   85  2          1.56603253         10.39239500          7.24151832
   86  2          9.19345871         11.02181736          0.05678551
   87  2          5.20356999          0.23641600          1.86396168
   88  2          6.22993462          0.85302459          0.38886522
   89  2         10.63985550          4.37682777          8.32545397
   90  2          5.93174555          3.12899939          8.60030998
   91  2          3.70236437          4.39169501          1.17484340
   92  2          8.17821758          3.65859405          0.83693043
   93  2          4.10267136          1.82416130         10.84595075
   94  2          7.89274761          9.00019383          9.60108235
   95  2          6.60622454          9.54926455          2.79307265
   96  2         10.91405496          0.96230506          5.65397175
   97  2          7.11236835          1.47422392          9.62367780
   98  2         10.98361257          0.59980498          8.15085653
   99  2          4.81670724          5.70747814         10.97043720
  100  2          4.14798580         11.80077570          5.02844489
  101  2          9.01378438         10.25440185          5.70605293
  102  2          1.11429356          6.24965621          4.58379064
  103  2          3.69833055          1.51279935          2.95982868
  104  2         10.32555860          1.56199295          0.15454675
  105  2          5.24535260          5.88933261          8.58688611
  106  2         11.54935628          4.15583210          2.97716412
  107  2          9.97588987         10.21711038         10.29721383
  108  2          3.96261057          2.09316544          7.38715312
  109  2          8.16585874          5.31410087          2.34410866
  110  2          4.08626444         12.17944240          9.36978400
  111  2         11.50529479          7.16322929         10.15267901
  112  2          1.23305873         12.06201952         11.73995682
  113  2          6.08879871          4.11862036          0.14997069
  114  2          4.69388783          7.11126081          0.68191379
  115  2          0.61741099          3.57247264          4.95911495
  116  2          1.86635212          5.62426394          0.86890141
  117  2          4.39547471          6.94035630          6.71135735
  118  2          1.05317377          1.26535948          7.68371085
  119  2         12.23225995          9.56948610          4.53580992
  120  2          1.01242340          2.04121589          1.17387372
  121  2         12.10691297          3.95634786          0.95003436
  122  2          3.56394297         10.13768252          9.94880865
  123  2          9.32039404          7.62493171          2.30104132
  124  2         11.21157009          8.78911724          1.14435403
  125  2          8.20473904          2.83332344          6.02590014
  126  2          7.38232811          4.06417218          7.77234800
  127  2         12.19381786          3.37195168         10.06223913
  128  2          1.58678899          4.70618588          9.81047537
  129  2          8.66417031          0.31153687          8.74354220
  130  2          9.88884858         11.51132843          4.42444255
  131  2          1.64893590          6.89094643          8.98454060
  132  2          1.72114799          1.03643312          2.62794503
  133  2          6.08535847          9.74237903         10.88119417
  134  2          0.59474042          7.74222876         12.10943397
  135  2         11.13574047          6.93168870          5.53758236
  136  2          0.90992613          1.90176397         11.26011017
  137  2          0.32795264          6.91895777          7.06696024
  138  2          6.40231532          9.06950205          6.53867611
  139  2          6.18455935         11.51122419          9.62410759
  140  2          1.28859892         10.26322461          9.57409112
  141  2          4.17019533         10.39955282          0.36608557
  142  2          3.63307521          6.57570114          3.04994846
  143  2         10.31833212          0.72506485          2.87085286
  144  2          5.21643924          9.22089160          4.58589555
  145  2          8.68741826          7.36808621          5.57504155
  146  2          2.25837855          9.75250936          3.41603255
  147  2          8.10507831          1.71109608          4.19091907
  148  2          1.50845417         10.82874780          5.10613821
  149  2          2.75828977          9.81647964          6.50270139
  150  2          9.51733793         11.89000938          1.27115467
  151  2          6.09860051          0.98185801          2.80285973
  152  2          7.75037197          1.06182165          0.70745402
  153  2         10.73316590          6.00586417          8.46394211
  154  2          6.53419641          3.66785826          9.98813681
  155  2          4.18967897          2.96860630          1.69579142
  156  2          9.64880883          3.63252194          1.38990671
  157  2          4.17886319          2.91775827         12.09703915
  158  2          8.54848485          9.13058103          8.06775835
  159  2          7.44460648         10.54003926          1.73137866
  160  2         11.64372668          1.67858848          4.48611488
  161  2          7.47823338          0.58960836         10.79995734
  162  2         12.00998882         11.86660247          8.04937861
  163  2          4.35038921          4.44936650         10.31433105
  164  2          3.22171125         11.80592848          6.18896007
  165  2         10.17222768          9.34921875          5.92165915
  166  2          2.01702707          5.02283278          4.55072751
  167  2          2.62632348          2.37755156          3.73541877
  168  2         10.30586879          0.61036682         11.23564210
  169  2          6.11373467          5.71713211          7.24374895
  170  2         11.03715396          4.56508103          4.34986477
  171  2         10.83234514         10.30311166         11.63557520
  172  2          5.19863200          1.37751061          6.88910795
  173  2          8.01493761          6.51699883          3.27335502
  174  2          2.84051948          0.65423990          9.61586243
  175  2         10.43692287          7.99286238          9.48810981
  176  2          1.88651568         10.59650885         11.47695900
  177  2          6.87915970          5.34857672         12.22203783
  178  2          5.51504728          7.56172020         11.81444594
  179  2          1.52599312          2.80087972          6.07620835
  180  2          1.99397342          5.58264788          2.38318864
  181  2          3.42194652          7.04190620          5.45190999
  182  2          1.56253634          2.53236589          8.31769185
  183  2         11.04016724          8.92636033          3.84669869
  184  2          1.45486058          3.49099280          1.15085255
  185  2         11.34928945          5.36509009          0.84303045
  186  2          3.08534755          8.67590787         10.46154320
  187  2          9.38389375          9.20246793          2.50854209
  188  2         12.37357181          9.71669845          0.60636396
  189  2          8.72024752          1.57212744          6.69006175
  190  2          8.69807090          4.76834994          7.59663195
  191  2         10.63145402          2.96624091         10.43431968
  192  2          2.06550744          3.30595952         10.35174653
